version 3
run PersistentMonitoring-0-20260513-23:02:07-10890
attr configname PersistentMonitoring
attr datetime 20260513-23:02:07
attr datetimef 20260513-230207
attr experiment PersistentMonitoring
attr inifile omnetpp.ini
attr iterationvars ""
attr iterationvarsd ""
attr iterationvarsf ""
attr measurement ""
attr network PersistentMonitoringNetwork
attr processid 10890
attr repetition 0
attr replication #0
attr resultdir results
attr runnumber 0
attr seedset 0
config image-path ../inet4.5/images
config *.Target[*].mobility.typename StationaryMobility
config *.agentMobility[*].mobility.initialX "uniform(10m, 490m)"
config *.agentMobility[*].mobility.initialY "uniform(10m, 490m)"
config *.Target[*].mobility.initialX uniform(10m,490m)
config *.Target[*].mobility.initialY uniform(10m,490m)
config **.borderPolicy "\"reflect\""
config sim-time-limit 1000s
config cmdenv-autoflush true
config cmdenv-express-mode false
config network PersistentMonitoringNetwork
config **.networkConfiguratorModule "\"\""
config **.num_agents 3
config sim-time-limit 1000s
config user-interface Cmdenv

vector 0 PersistentMonitoringNetwork.target1 Target_Uncertainty ETV
vector 1 PersistentMonitoringNetwork.target2 Target_Uncertainty ETV
vector 2 PersistentMonitoringNetwork.target3 Target_Uncertainty ETV
vector 3 PersistentMonitoringNetwork.target4 Target_Uncertainty ETV
vector 4 PersistentMonitoringNetwork.target5 Target_Uncertainty ETV
0	0	0	0
0	1	5	0.5
0	12	10	1
0	17	15	1.5
0	28	20	2
0	33	25	2.5
0	44	30	3
0	49	35	3.5
0	60	40	4
0	65	45	4.5
0	76	50	5
0	81	55	5.5
0	92	60	6
0	97	65	6.5
0	108	70	7
0	113	75	7.5
0	124	80	8
0	129	85	8.5
0	140	90	9
0	145	95	9.5
0	156	100	10
0	161	105	10.5
0	172	110	11
0	177	115	11.5
1	0	0	0
1	2	5	0.5
1	13	10	1
1	18	15	1.5
1	29	20	2
1	34	25	2.5
1	45	30	3
1	50	35	3.5
1	61	40	4
1	66	45	4.5
1	77	50	5
1	82	55	5.5
1	93	60	6
1	98	65	6.5
1	109	70	7
1	114	75	7.5
1	125	80	8
1	130	85	8.5
1	141	90	9
1	146	95	9.5
1	157	100	10
1	162	105	10.5
1	173	110	11
1	178	115	11.5
2	0	0	0
2	3	5	0.5
2	14	10	1
2	19	15	1.5
2	30	20	2
2	35	25	2.5
2	46	30	3
2	51	35	3.5
2	62	40	4
2	67	45	4.5
2	78	50	5
2	83	55	5.5
2	94	60	6
2	99	65	6.5
2	110	70	7
2	115	75	7.5
2	126	80	8
2	131	85	8.5
2	142	90	9
2	147	95	9.5
2	158	100	10
2	163	105	10.5
2	174	110	11
3	0	0	0
3	4	5	0.5
3	15	10	1
3	20	15	1.5
3	31	20	2
3	36	25	2.5
3	47	30	3
3	52	35	3.5
3	63	40	4
3	68	45	4.5
3	79	50	5
3	84	55	5.5
3	95	60	6
3	100	65	6.5
3	111	70	7
3	116	75	7.5
3	127	80	8
3	132	85	8.5
3	143	90	9
3	148	95	9.5
3	159	100	10
3	164	105	10.5
3	175	110	11
4	0	0	0
4	5	5	0.5
4	16	10	1
4	21	15	1.5
4	32	20	2
4	37	25	2.5
4	48	30	3
4	53	35	3.5
4	64	40	4
4	69	45	4.5
4	80	50	5
4	85	55	5.5
4	96	60	6
4	101	65	6.5
4	112	70	7
4	117	75	7.5
4	128	80	8
4	133	85	8.5
4	144	90	9
4	149	95	9.5
4	160	100	10
4	165	105	10.5
4	176	110	11
2	179	115	11.5
0	188	120	12
0	193	125	12.5
0	204	130	13
0	209	135	13.5
0	220	140	14
0	225	145	14.5
0	236	150	15
0	241	155	15.5
0	252	160	16
0	257	165	13.5
0	268	170	11
0	273	175	8.5
0	284	180	6
0	289	185	6.5
0	300	190	7
0	305	195	7.5
0	316	200	8
0	321	205	8.5
0	332	210	9
0	337	215	9.5
0	348	220	10
0	353	225	10.5
0	364	230	11
0	369	235	11.5
0	380	240	12
0	385	245	12.5
0	396	250	13
0	401	255	13.5
0	412	260	14
0	417	265	14.5
0	428	270	15
0	433	275	15.5
0	444	280	16
0	449	285	16.5
0	460	290	17
0	465	295	17.5
0	476	300	18
0	481	305	18.5
0	492	310	19
0	497	315	19.5
0	508	320	20
0	513	325	20.5
0	524	330	21
0	529	335	21.5
0	540	340	22
0	545	345	22.5
0	556	350	23
0	561	355	23.5
0	572	360	24
0	577	365	24.5
0	588	370	25
0	593	375	25.5
0	604	380	26
0	609	385	26.5
0	620	390	27
0	625	395	27.5
0	636	400	28
0	641	405	28.5
0	652	410	29
0	657	415	29.5
0	668	420	30
0	673	425	30.5
0	684	430	31
0	689	435	31.5
0	700	440	32
0	705	445	32.5
0	716	450	33
0	721	455	33.5
0	732	460	34
0	737	465	34.5
0	748	470	35
0	753	475	35.5
0	764	480	36
0	769	485	36.5
0	780	490	37
0	785	495	37.5
0	796	500	38
0	801	505	38.5
0	812	510	39
0	817	515	39.5
0	828	520	40
0	833	525	40.5
0	844	530	41
0	849	535	41.5
0	860	540	42
0	865	545	42.5
0	876	550	43
0	881	555	43.5
0	892	560	44
0	897	565	44.5
0	908	570	45
0	913	575	45.5
0	924	580	46
0	929	585	46.5
0	940	590	47
0	945	595	47.5
0	956	600	48
0	961	605	48.5
0	972	610	49
0	977	615	49.5
0	988	620	50
0	993	625	50.5
0	1004	630	51
0	1009	635	51.5
0	1020	640	52
0	1025	645	52.5
0	1036	650	53
0	1041	655	53.5
0	1052	660	54
0	1057	665	54.5
0	1068	670	55
0	1073	675	55.5
0	1084	680	56
0	1089	685	56.5
0	1100	690	57
0	1105	695	57.5
0	1116	700	58
0	1121	705	58.5
0	1132	710	59
0	1137	715	59.5
0	1148	720	60
0	1153	725	60.5
0	1164	730	61
0	1169	735	61.5
0	1180	740	62
0	1185	745	62.5
0	1196	750	63
0	1201	755	63.5
0	1212	760	64
0	1217	765	64.5
0	1228	770	65
0	1233	775	65.5
0	1244	780	66
0	1249	785	66.5
0	1260	790	67
0	1265	795	67.5
0	1276	800	68
0	1281	805	68.5
0	1292	810	69
0	1297	815	69.5
0	1308	820	70
0	1313	825	70.5
0	1324	830	71
0	1329	835	71.5
0	1340	840	72
0	1345	845	72.5
0	1356	850	73
0	1361	855	73.5
0	1372	860	74
0	1377	865	74.5
0	1388	870	75
0	1393	875	75.5
0	1404	880	76
0	1409	885	76.5
0	1420	890	77
0	1425	895	77.5
0	1436	900	78
0	1441	905	78.5
0	1452	910	79
0	1457	915	79.5
0	1468	920	80
0	1473	925	80.5
0	1484	930	81
0	1489	935	81.5
0	1500	940	82
0	1505	945	82.5
0	1516	950	83
0	1521	955	83.5
0	1532	960	84
0	1537	965	84.5
0	1548	970	85
0	1553	975	85.5
0	1564	980	86
0	1569	985	86.5
0	1580	990	87
0	1585	995	87.5
0	1596	1000	88
1	189	120	12
1	194	125	12.5
1	205	130	13
1	210	135	13.5
1	221	140	14
1	226	145	14.5
1	237	150	15
1	242	155	15.5
1	253	160	16
1	258	165	16.5
1	269	170	17
1	274	175	17.5
1	285	180	18
1	290	185	18.5
1	301	190	19
1	306	195	19.5
1	317	200	20
1	322	205	20.5
1	333	210	21
1	338	215	21.5
1	349	220	22
1	354	225	22.5
1	365	230	23
1	370	235	23.5
1	381	240	24
1	386	245	24.5
1	397	250	25
1	402	255	25.5
1	413	260	26
1	418	265	26.5
1	429	270	27
1	434	275	27.5
1	445	280	28
1	450	285	28.5
1	461	290	29
1	466	295	29.5
1	477	300	30
1	482	305	30.5
1	493	310	31
1	498	315	31.5
1	509	320	32
1	514	325	32.5
1	525	330	33
1	530	335	33.5
1	541	340	34
1	546	345	34.5
1	557	350	35
1	562	355	35.5
1	573	360	36
1	578	365	36.5
1	589	370	37
1	594	375	37.5
1	605	380	38
1	610	385	38.5
1	621	390	39
1	626	395	39.5
1	637	400	40
1	642	405	40.5
1	653	410	41
1	658	415	41.5
1	669	420	42
1	674	425	42.5
1	685	430	43
1	690	435	43.5
1	701	440	44
1	706	445	44.5
1	717	450	45
1	722	455	45.5
1	733	460	46
1	738	465	46.5
1	749	470	47
1	754	475	47.5
1	765	480	48
1	770	485	48.5
1	781	490	49
1	786	495	49.5
1	797	500	50
1	802	505	50.5
1	813	510	51
1	818	515	51.5
1	829	520	52
1	834	525	52.5
1	845	530	53
1	850	535	53.5
1	861	540	54
1	866	545	54.5
1	877	550	55
1	882	555	55.5
1	893	560	56
1	898	565	56.5
1	909	570	57
1	914	575	57.5
1	925	580	58
1	930	585	58.5
1	941	590	59
1	946	595	59.5
1	957	600	60
1	962	605	60.5
1	973	610	61
1	978	615	61.5
1	989	620	62
1	994	625	62.5
1	1005	630	63
1	1010	635	63.5
1	1021	640	64
1	1026	645	64.5
1	1037	650	65
1	1042	655	65.5
1	1053	660	66
1	1058	665	66.5
1	1069	670	67
1	1074	675	67.5
1	1085	680	68
1	1090	685	68.5
1	1101	690	69
1	1106	695	69.5
1	1117	700	70
1	1122	705	70.5
1	1133	710	71
1	1138	715	71.5
1	1149	720	72
1	1154	725	72.5
1	1165	730	73
1	1170	735	73.5
1	1181	740	74
1	1186	745	74.5
1	1197	750	75
1	1202	755	75.5
1	1213	760	76
1	1218	765	76.5
1	1229	770	77
1	1234	775	77.5
1	1245	780	78
1	1250	785	78.5
1	1261	790	79
1	1266	795	79.5
1	1277	800	80
1	1282	805	80.5
1	1293	810	81
1	1298	815	81.5
1	1309	820	82
1	1314	825	82.5
1	1325	830	83
1	1330	835	83.5
1	1341	840	84
1	1346	845	84.5
1	1357	850	85
1	1362	855	85.5
1	1373	860	86
1	1378	865	86.5
1	1389	870	87
1	1394	875	87.5
1	1405	880	88
1	1410	885	88.5
1	1421	890	89
1	1426	895	89.5
1	1437	900	90
1	1442	905	90.5
1	1453	910	91
1	1458	915	91.5
1	1469	920	92
1	1474	925	92.5
1	1485	930	93
1	1490	935	93.5
1	1501	940	94
1	1506	945	94.5
1	1517	950	95
1	1522	955	95.5
1	1533	960	96
1	1538	965	96.5
1	1549	970	97
1	1554	975	97.5
1	1565	980	98
1	1570	985	98.5
1	1581	990	99
1	1586	995	99.5
1	1597	1000	100
2	190	120	12
2	195	125	12.5
2	206	130	13
2	211	135	13.5
2	222	140	14
2	227	145	14.5
2	238	150	15
2	243	155	15.5
2	254	160	16
2	259	165	16.5
2	270	170	17
2	275	175	17.5
2	286	180	18
2	291	185	18.5
2	302	190	19
2	307	195	19.5
2	318	200	20
2	323	205	20.5
2	334	210	21
2	339	215	21.5
2	350	220	22
2	355	225	22.5
2	366	230	23
2	371	235	23.5
2	382	240	24
2	387	245	24.5
2	398	250	25
2	403	255	25.5
2	414	260	26
2	419	265	26.5
2	430	270	27
2	435	275	27.5
2	446	280	28
2	451	285	28.5
2	462	290	29
2	467	295	29.5
2	478	300	30
2	483	305	30.5
2	494	310	31
2	499	315	31.5
2	510	320	32
2	515	325	32.5
2	526	330	33
2	531	335	33.5
2	542	340	34
2	547	345	34.5
2	558	350	35
2	563	355	35.5
2	574	360	36
2	579	365	36.5
2	590	370	37
2	595	375	37.5
2	606	380	38
2	611	385	38.5
2	622	390	39
2	627	395	39.5
2	638	400	40
2	643	405	40.5
2	654	410	41
2	659	415	41.5
2	670	420	42
2	675	425	42.5
2	686	430	43
2	691	435	43.5
2	702	440	44
2	707	445	44.5
2	718	450	45
2	723	455	45.5
2	734	460	46
2	739	465	46.5
2	750	470	47
2	755	475	47.5
2	766	480	48
2	771	485	48.5
2	782	490	49
2	787	495	49.5
2	798	500	50
2	803	505	50.5
2	814	510	51
2	819	515	51.5
2	830	520	52
2	835	525	52.5
2	846	530	53
2	851	535	53.5
2	862	540	54
2	867	545	54.5
2	878	550	55
2	883	555	55.5
2	894	560	56
2	899	565	56.5
2	910	570	57
2	915	575	57.5
2	926	580	58
2	931	585	58.5
2	942	590	59
2	947	595	59.5
2	958	600	60
2	963	605	60.5
2	974	610	61
2	979	615	61.5
2	990	620	62
2	995	625	62.5
2	1006	630	63
2	1011	635	63.5
2	1022	640	64
2	1027	645	64.5
2	1038	650	65
2	1043	655	65.5
2	1054	660	66
2	1059	665	66.5
2	1070	670	67
2	1075	675	67.5
2	1086	680	68
2	1091	685	68.5
2	1102	690	69
2	1107	695	69.5
2	1118	700	70
2	1123	705	70.5
2	1134	710	71
2	1139	715	71.5
2	1150	720	72
2	1155	725	72.5
2	1166	730	73
2	1171	735	73.5
2	1182	740	74
2	1187	745	74.5
2	1198	750	75
2	1203	755	75.5
2	1214	760	76
2	1219	765	76.5
2	1230	770	77
2	1235	775	77.5
2	1246	780	78
2	1251	785	78.5
2	1262	790	79
2	1267	795	79.5
2	1278	800	80
2	1283	805	80.5
2	1294	810	81
2	1299	815	81.5
2	1310	820	82
2	1315	825	82.5
2	1326	830	83
2	1331	835	83.5
2	1342	840	84
2	1347	845	84.5
2	1358	850	85
2	1363	855	85.5
2	1374	860	86
2	1379	865	86.5
2	1390	870	87
2	1395	875	87.5
2	1406	880	88
2	1411	885	88.5
2	1422	890	89
2	1427	895	89.5
2	1438	900	90
2	1443	905	90.5
2	1454	910	91
2	1459	915	91.5
2	1470	920	92
2	1475	925	92.5
2	1486	930	93
2	1491	935	93.5
2	1502	940	94
2	1507	945	94.5
2	1518	950	95
2	1523	955	95.5
2	1534	960	96
2	1539	965	96.5
2	1550	970	97
2	1555	975	97.5
2	1566	980	98
2	1571	985	98.5
2	1582	990	99
2	1587	995	99.5
2	1598	1000	100
3	180	115	11.5
3	191	120	12
3	196	125	12.5
3	207	130	13
3	212	135	13.5
3	223	140	14
3	228	145	14.5
3	239	150	15
3	244	155	15.5
3	255	160	16
3	260	165	16.5
3	271	170	17
3	276	175	17.5
3	287	180	18
3	292	185	18.5
3	303	190	19
3	308	195	19.5
3	319	200	20
3	324	205	20.5
3	335	210	21
3	340	215	21.5
3	351	220	22
3	356	225	22.5
3	367	230	23
3	372	235	23.5
3	383	240	24
3	388	245	24.5
3	399	250	25
3	404	255	25.5
3	415	260	26
3	420	265	26.5
3	431	270	27
3	436	275	27.5
3	447	280	28
3	452	285	28.5
3	463	290	29
3	468	295	29.5
3	479	300	30
3	484	305	30.5
3	495	310	31
3	500	315	31.5
3	511	320	32
3	516	325	32.5
3	527	330	33
3	532	335	33.5
3	543	340	34
3	548	345	34.5
3	559	350	35
3	564	355	35.5
3	575	360	36
3	580	365	36.5
3	591	370	37
3	596	375	37.5
3	607	380	38
3	612	385	38.5
3	623	390	39
3	628	395	39.5
3	639	400	40
3	644	405	40.5
3	655	410	41
3	660	415	41.5
3	671	420	42
3	676	425	42.5
3	687	430	43
3	692	435	43.5
3	703	440	44
3	708	445	44.5
3	719	450	45
3	724	455	45.5
3	735	460	46
3	740	465	46.5
3	751	470	47
3	756	475	47.5
3	767	480	48
3	772	485	48.5
3	783	490	49
3	788	495	49.5
3	799	500	50
3	804	505	50.5
3	815	510	51
3	820	515	51.5
3	831	520	52
3	836	525	52.5
3	847	530	53
3	852	535	53.5
3	863	540	54
3	868	545	54.5
3	879	550	55
3	884	555	55.5
3	895	560	56
3	900	565	56.5
3	911	570	57
3	916	575	57.5
3	927	580	58
3	932	585	58.5
3	943	590	59
3	948	595	59.5
3	959	600	60
3	964	605	60.5
3	975	610	61
3	980	615	61.5
3	991	620	62
3	996	625	62.5
3	1007	630	63
3	1012	635	63.5
3	1023	640	64
3	1028	645	64.5
3	1039	650	65
3	1044	655	65.5
3	1055	660	66
3	1060	665	66.5
3	1071	670	67
3	1076	675	67.5
3	1087	680	68
3	1092	685	68.5
3	1103	690	69
3	1108	695	69.5
3	1119	700	70
3	1124	705	70.5
3	1135	710	71
3	1140	715	71.5
3	1151	720	72
3	1156	725	72.5
3	1167	730	73
3	1172	735	73.5
3	1183	740	74
3	1188	745	74.5
3	1199	750	75
3	1204	755	75.5
3	1215	760	76
3	1220	765	76.5
3	1231	770	77
3	1236	775	77.5
3	1247	780	78
3	1252	785	78.5
3	1263	790	79
3	1268	795	79.5
3	1279	800	80
3	1284	805	80.5
3	1295	810	81
3	1300	815	81.5
3	1311	820	82
3	1316	825	82.5
3	1327	830	83
3	1332	835	83.5
3	1343	840	84
3	1348	845	84.5
3	1359	850	85
3	1364	855	85.5
3	1375	860	86
3	1380	865	86.5
3	1391	870	87
3	1396	875	87.5
3	1407	880	88
3	1412	885	88.5
3	1423	890	89
3	1428	895	89.5
3	1439	900	90
3	1444	905	90.5
3	1455	910	91
3	1460	915	91.5
3	1471	920	92
3	1476	925	92.5
3	1487	930	93
3	1492	935	93.5
3	1503	940	94
3	1508	945	94.5
3	1519	950	95
3	1524	955	95.5
3	1535	960	96
3	1540	965	96.5
3	1551	970	97
3	1556	975	97.5
3	1567	980	98
3	1572	985	98.5
3	1583	990	99
3	1588	995	99.5
3	1599	1000	100
4	181	115	11.5
4	192	120	12
4	197	125	12.5
4	208	130	13
4	213	135	13.5
4	224	140	14
4	229	145	14.5
4	240	150	15
4	245	155	15.5
4	256	160	16
4	261	165	16.5
4	272	170	17
4	277	175	17.5
4	288	180	18
4	293	185	18.5
4	304	190	19
4	309	195	19.5
4	320	200	20
4	325	205	20.5
4	336	210	21
4	341	215	21.5
4	352	220	22
4	357	225	22.5
4	368	230	23
4	373	235	23.5
4	384	240	24
4	389	245	24.5
4	400	250	25
4	405	255	25.5
4	416	260	26
4	421	265	26.5
4	432	270	27
4	437	275	27.5
4	448	280	28
4	453	285	28.5
4	464	290	29
4	469	295	29.5
4	480	300	30
4	485	305	30.5
4	496	310	31
4	501	315	31.5
4	512	320	32
4	517	325	32.5
4	528	330	33
4	533	335	33.5
4	544	340	34
4	549	345	34.5
4	560	350	35
4	565	355	35.5
4	576	360	36
4	581	365	36.5
4	592	370	37
4	597	375	37.5
4	608	380	38
4	613	385	38.5
4	624	390	39
4	629	395	39.5
4	640	400	40
4	645	405	40.5
4	656	410	41
4	661	415	41.5
4	672	420	42
4	677	425	42.5
4	688	430	43
4	693	435	43.5
4	704	440	44
4	709	445	44.5
4	720	450	45
4	725	455	45.5
4	736	460	46
4	741	465	46.5
4	752	470	47
4	757	475	47.5
4	768	480	48
4	773	485	48.5
4	784	490	49
4	789	495	49.5
4	800	500	50
4	805	505	50.5
4	816	510	51
4	821	515	51.5
4	832	520	52
4	837	525	52.5
4	848	530	53
4	853	535	53.5
4	864	540	54
4	869	545	54.5
4	880	550	55
4	885	555	55.5
4	896	560	56
4	901	565	56.5
4	912	570	57
4	917	575	57.5
4	928	580	58
4	933	585	58.5
4	944	590	59
4	949	595	59.5
4	960	600	60
4	965	605	60.5
4	976	610	61
4	981	615	61.5
4	992	620	62
4	997	625	62.5
4	1008	630	63
4	1013	635	63.5
4	1024	640	64
4	1029	645	64.5
4	1040	650	65
4	1045	655	65.5
4	1056	660	66
4	1061	665	66.5
4	1072	670	67
4	1077	675	67.5
4	1088	680	68
4	1093	685	68.5
4	1104	690	69
4	1109	695	69.5
4	1120	700	70
4	1125	705	70.5
4	1136	710	71
4	1141	715	71.5
4	1152	720	72
4	1157	725	72.5
4	1168	730	73
4	1173	735	73.5
4	1184	740	74
4	1189	745	74.5
4	1200	750	75
4	1205	755	75.5
4	1216	760	76
4	1221	765	76.5
4	1232	770	77
4	1237	775	77.5
4	1248	780	78
4	1253	785	78.5
4	1264	790	79
4	1269	795	79.5
4	1280	800	80
4	1285	805	80.5
4	1296	810	81
4	1301	815	81.5
4	1312	820	82
4	1317	825	82.5
4	1328	830	83
4	1333	835	83.5
4	1344	840	84
4	1349	845	84.5
4	1360	850	85
4	1365	855	85.5
4	1376	860	86
4	1381	865	86.5
4	1392	870	87
4	1397	875	87.5
4	1408	880	88
4	1413	885	88.5
4	1424	890	89
4	1429	895	89.5
4	1440	900	90
4	1445	905	90.5
4	1456	910	91
4	1461	915	91.5
4	1472	920	92
4	1477	925	92.5
4	1488	930	93
4	1493	935	93.5
4	1504	940	94
4	1509	945	94.5
4	1520	950	95
4	1525	955	95.5
4	1536	960	96
4	1541	965	96.5
4	1552	970	97
4	1557	975	97.5
4	1568	980	98
4	1573	985	98.5
4	1584	990	99
4	1589	995	99.5
4	1600	1000	100

