version 3
run PersistentMonitoring-0-20260514-02:25:39-2510
attr configname PersistentMonitoring
attr datetime 20260514-02:25:39
attr datetimef 20260514-022539
attr experiment PersistentMonitoring
attr inifile omnetpp.ini
attr iterationvars ""
attr iterationvarsd ""
attr iterationvarsf ""
attr measurement ""
attr network PersistentMonitoringNetwork
attr processid 2510
attr repetition 0
attr replication #0
attr resultdir results
attr runnumber 0
attr seedset 0
config image-path ../inet4.5/images
config sim-time-limit 3000s
config cmdenv-autoflush true
config cmdenv-express-mode false
config network PersistentMonitoringNetwork
config **.networkConfiguratorModule "\"\""
config *.visualizer.mobilityVisualizer.displayMovementTrails true
config *.visualizer.mobilityVisualizer.displayVelocities true
config *.visualizer.mobilityVisualizer.displayOrientations true
config *.visualizer.mobilityVisualizer.trailLength 200
config **.num_agents 3
config sim-time-limit 3000s
config user-interface Qtenv

vector 0 PersistentMonitoringNetwork.target1 Target_Uncertainty ETV
vector 1 PersistentMonitoringNetwork.target2 Target_Uncertainty ETV
vector 2 PersistentMonitoringNetwork.target3 Target_Uncertainty ETV
vector 3 PersistentMonitoringNetwork.target4 Target_Uncertainty ETV
vector 4 PersistentMonitoringNetwork.target5 Target_Uncertainty ETV
0	0	0	0
0	13	5	0.48490453429986
0	33	10	0.62630801403429
0	53	15	1.0720852294471
0	73	20	1.2558661652729
0	93	25	1.3413594616577
0	113	30	1.6810558495345
0	133	35	1.7742849588394
0	153	40	2.2125375800533
0	173	45	2.3634530171985
0	193	50	2.4931642999873
0	213	55	2.7063172389753
0	233	60	3.1709629456745
0	253	65	3.6344024916179
0	273	70	3.8590483156731
0	293	75	4.303070168593
0	313	80	4.4743756597163
0	333	85	4.785222107661
0	353	90	4.9663166364189
0	373	95	5.0073455092497
0	393	100	5.43590796832
0	413	105	5.9150616474217
0	433	110	6.2604540355969
0	453	115	6.749727809336
0	473	120	6.8730062785326
0	493	125	7.0051726587117
0	513	130	7.0936755466973
0	533	135	7.5923936094623
0	553	140	7.8510566514451
0	573	145	8.2015206856886
0	593	150	8.6384367747232
0	613	155	8.7541276650736
0	633	160	8.760882016737
0	653	165	9.2598407780752
0	673	170	9.520871985238
0	693	175	9.87572225451
0	713	180	10.338419767795
0	733	185	10.389614742016
0	753	190	10.674258201965
0	773	195	10.950478378218
0	793	200	10.977345150663
0	813	205	11.187273975112
0	833	210	11.229169654776
0	853	215	11.303657088196
0	873	220	11.369500727626
0	893	225	11.388382775127
0	913	230	11.787422283902
0	933	235	12.022216354846
0	953	240	12.38341211481
0	973	245	12.873736581299
0	993	250	13.192918028333
0	1013	255	13.622931314283
0	1033	260	14.007867070031
0	1053	265	14.221130835474
0	1073	270	14.571447505848
0	1093	275	15.045204688562
0	1113	280	15.30140893138
0	1133	285	15.377157462761
0	1153	290	15.736250724993
0	1173	295	16.084589854581
0	1193	300	16.566694731824
0	1213	305	16.598148213932
0	1233	310	16.732142558205
0	1253	315	17.216285319068
0	1273	320	17.331582636805
0	1293	325	17.471347605577
0	1313	330	17.766487564426
0	1333	335	18.002582594403
0	1353	340	18.222455248237
0	1373	345	18.493326909724
0	1393	350	18.785881463205
0	1413	355	19.05700243602
0	1433	360	19.170248072594
0	1453	365	19.492299345438
0	1473	370	19.616218671435
0	1493	375	19.917499147472
0	1513	380	20.197022552835
0	1533	385	20.531726611662
0	1553	390	20.971023730468
0	1573	395	21.192450455623
0	1593	400	21.590706585441
0	1613	405	21.626573844114
0	1633	410	22.103534075897
0	1653	415	22.440233768895
0	1673	420	22.593368319678
0	1693	425	22.611890613683
0	1713	430	22.745142932865
0	1733	435	22.971923772129
0	1753	440	23.384575082804
0	1773	445	23.733183326898
0	1793	450	24.146524843411
0	1813	455	24.544825147488
0	1833	460	24.859634298482
0	1853	465	25.301986163831
0	1873	470	25.694027687889
0	1893	475	26.012565869372
0	1913	480	26.202183747431
0	1933	485	26.248535935418
0	1953	490	26.723982489086
0	1973	495	26.961044735974
0	1993	500	27.256331082783
0	2013	505	27.73156358744
0	2033	510	28.038675755612
0	2053	515	28.243836510461
0	2073	520	28.374925770797
0	2093	525	28.385660976404
0	2113	530	28.388045165455
0	2133	535	28.788747692015
0	2153	540	28.848699475755
0	2173	545	29.230100870016
0	2193	550	29.554171605152
0	2213	555	29.757762413006
0	2233	560	30.14665404486
0	2253	565	30.459844251745
0	2273	570	30.62078873557
0	2293	575	31.008699335856
0	2313	580	31.177750745206
0	2333	585	31.281812121975
0	2353	590	31.560171843506
0	2373	595	31.834373493912
0	2393	600	32.168970059836
0	2413	605	32.341043978115
0	2433	610	32.707491909154
0	2453	615	32.872302496107
0	2473	620	32.966429091641
0	2493	625	33.069434947451
0	2513	630	33.37145966175
0	2533	635	33.658285691519
0	2553	640	33.716220773058
0	2573	645	33.823417754029
0	2593	650	34.277330575278
0	2613	655	34.390125409584
0	2633	660	34.45625973132
0	2653	665	34.861961474526
0	2673	670	35.009787247865
0	2693	675	35.125235715182
0	2713	680	35.552834908012
0	2733	685	35.745720012463
0	2753	690	35.955896919477
0	2773	695	36.072132064495
0	2793	700	36.238547542016
0	2813	705	36.304730918608
0	2833	710	36.736518350663
0	2853	715	36.871835091966
0	2873	720	36.972907800693
0	2893	725	37.173288803431
0	2913	730	37.334080094704
0	2933	735	37.814874782111
0	2953	740	37.861437091487
0	2973	745	37.984769461676
0	2993	750	38.481581716798
0	3013	755	38.593390766997
0	3033	760	38.859823795618
0	3053	765	38.898284909083
0	3073	770	39.268218187615
0	3093	775	39.304342051153
0	3113	780	39.804320358438
0	3133	785	40.225838307058
0	3153	790	40.261230255361
0	3173	795	40.646312632947
0	3193	800	40.738052689703
0	3213	805	41.224755408242
0	3233	810	41.307060020859
0	3253	815	41.692580872797
0	3273	820	41.914664590848
0	3293	825	42.362489803345
0	3313	830	42.587546418421
0	3333	835	43.020688603865
0	3353	840	43.099195639603
0	3373	845	43.193699776893
0	3393	850	41.031356148887
0	3413	855	41.275986748165
0	3433	860	41.460998112219
0	3453	865	41.862567081233
0	3473	870	42.234378279187
0	3493	875	42.388441761024
0	3513	880	42.755282078055
0	3533	885	40.556682374794
0	3553	890	40.658023953438
0	3573	895	40.975264234352
0	3593	900	41.229871486197
0	3613	905	41.477766085067
0	3633	910	41.609432493919
0	3653	915	41.879552382976
0	3673	920	42.048088956391
0	3693	925	42.421642189496
0	3713	930	42.683169527445
0	3733	935	42.868755270843
0	3753	940	42.942710843636
0	3773	945	43.325522308936
0	3793	950	43.419123962172
0	3813	955	43.607589009218
0	3833	960	43.837092701695
0	3853	965	44.153353336966
0	3873	970	44.264290579595
0	3893	975	44.6494328673
0	3913	980	45.023862661095
0	3933	985	45.413201585761
0	3953	990	45.701391438139
0	3973	995	46.040074463468
0	3993	1000	46.211885280674
0	4013	1005	46.344081216957
0	4033	1010	46.601382052759
0	4053	1015	46.662234151154
0	4073	1020	46.668845646782
0	4093	1025	46.882437766413
0	4113	1030	47.137336247368
0	4133	1035	47.138364626211
0	4153	1040	47.607094740495
0	4173	1045	47.633177146781
0	4193	1050	47.747287662234
0	4213	1055	47.948011742556
0	4233	1060	48.232302282704
0	4253	1065	48.392658595578
0	4273	1070	48.461705594789
0	4293	1075	48.746560934349
0	4313	1080	49.125307016075
0	4333	1085	49.42401641258
0	4353	1090	49.637216942385
0	4373	1095	49.806055910769
0	4393	1100	50.178327252972
0	4413	1105	50.655209441553
0	4433	1110	48.979508358985
0	4453	1115	49.214654404321
0	4473	1120	49.531732610543
0	4493	1125	49.648856982007
0	4513	1130	50.072296914761
0	4533	1135	50.31041273952
0	4553	1140	50.31743305549
0	4573	1145	50.562927673804
0	4593	1150	50.769581477507
0	4613	1155	50.80769503722
0	4633	1160	50.960093482048
0	4653	1165	51.291877317824
0	4673	1170	51.525800935924
0	4693	1175	51.929304246209
0	4713	1180	52.225443589967
0	4733	1185	52.510364495451
0	4753	1190	52.829575664946
0	4773	1195	53.195817848085
0	4793	1200	53.518546092091
0	4813	1205	54.011949012405
0	4833	1210	54.044329198543
0	4853	1215	54.454666534322
0	4873	1220	54.812012857408
0	4893	1225	55.210173710366
0	4913	1230	55.380491382675
0	4933	1235	55.462182632298
0	4953	1240	55.7483166249
0	4973	1245	56.100103525911
0	4993	1250	56.37398011738
0	5013	1255	56.720027847565
0	5033	1260	57.013231658842
0	5053	1265	57.182743357029
0	5073	1270	57.400524408324
0	5093	1275	57.652885830845
0	5113	1280	57.917993714684
0	5133	1285	58.399653776665
0	5153	1290	58.800957829575
0	5173	1295	59.143836727599
0	5193	1300	59.585167395649
0	5213	1305	59.698986361735
0	5233	1310	59.760731434682
0	5253	1315	59.814810924348
0	5273	1320	59.888065021252
0	5293	1325	59.984103622613
0	5313	1330	60.417990084039
0	5333	1335	60.756225972669
0	5353	1340	60.812372743152
0	5373	1345	61.007013877621
0	5393	1350	61.103452325682
0	5413	1355	61.136638984433
0	5433	1360	61.260085721151
0	5453	1365	61.517759351293
0	5473	1370	61.860512755113
0	5493	1375	61.936812112341
0	5513	1380	62.284823767142
0	5533	1385	62.712735715555
0	5553	1390	63.183756120154
0	5573	1395	63.528704591095
0	5593	1400	63.562071128516
0	5613	1405	63.58737115073
0	5633	1410	63.9779344009
0	5653	1415	64.051255091792
0	5673	1420	64.101853542496
0	5693	1425	64.166976499837
0	5713	1430	64.615402786178
0	5733	1435	64.980955518782
0	5753	1440	65.306818716228
0	5773	1445	65.712550972472
0	5793	1450	65.922691249754
0	5813	1455	66.375853906036
0	5833	1460	66.868418122875
0	5853	1465	67.143053200562
0	5873	1470	67.434565115487
0	5893	1475	67.884292006143
0	5913	1480	67.981331235147
0	5933	1485	68.286541646346
0	5953	1490	68.7197198465
0	5973	1495	69.132390385028
0	5993	1500	69.433710870566
0	6013	1505	69.785486886976
0	6033	1510	70.065065667382
0	6053	1515	70.216930434457
0	6073	1520	70.408668228774
0	6093	1525	70.59185890574
0	6113	1530	70.596906493767
0	6133	1535	70.655884656473
0	6153	1540	71.11918505386
0	6173	1545	71.498127466301
0	6193	1550	71.858733166009
0	6213	1555	71.918538764468
0	6233	1560	72.048809330794
0	6253	1565	72.486848390661
0	6273	1570	72.623740547337
0	6293	1575	73.113828004454
0	6313	1580	73.432713867165
0	6333	1585	73.7337774185
0	6353	1590	73.770423814538
0	6373	1595	74.181194994599
0	6393	1600	74.511028263601
0	6413	1605	74.69624509546
0	6433	1610	75.172051886562
0	6453	1615	75.194599596434
0	6473	1620	75.348097149748
0	6493	1625	75.591430617496
0	6513	1630	75.722089689458
0	6533	1635	76.176990436739
0	6553	1640	76.458440770395
0	6573	1645	76.708912158618
0	6593	1650	76.809793245629
0	6613	1655	76.89825910388
0	6633	1660	77.28295118676
0	6653	1665	77.373878924293
0	6673	1670	77.410872920183
0	6693	1675	77.732326628407
0	6713	1680	78.002192561165
0	6733	1685	78.132110150764
0	6753	1690	78.191981933545
0	6773	1695	78.661760592251
0	6793	1700	78.887970467098
0	6813	1705	79.306555712828
0	6833	1710	79.725108842715
0	6853	1715	80.064812841825
0	6873	1720	80.140425505233
0	6893	1725	80.270341689466
0	6913	1730	80.76614823204
0	6933	1735	80.817460180609
0	6953	1740	81.006942922832
0	6973	1745	81.041089543374
0	6993	1750	81.449005584465
0	7013	1755	81.841770365951
0	7033	1760	81.908719339757
0	7053	1765	82.379915715894
0	7073	1770	82.445250232238
0	7093	1775	82.512072040117
0	7113	1780	82.536234219442
0	7133	1785	82.581999931834
0	7153	1790	82.599567220663
0	7173	1795	82.724628712051
0	7193	1800	82.937203180743
0	7213	1805	82.962873397977
0	7233	1810	83.188757209573
0	7253	1815	83.614812062471
0	7273	1820	83.635286934208
0	7293	1825	83.740059755393
0	7313	1830	84.157734931796
0	7333	1835	84.286955452291
0	7353	1840	84.483753314591
0	7373	1845	84.960820722161
0	7393	1850	85.119364865706
0	7413	1855	85.445682611433
0	7433	1860	85.542072409298
0	7453	1865	85.99303557002
0	7473	1870	86.168970094295
0	7493	1875	86.585835787933
0	7513	1880	86.601062801434
0	7533	1885	86.808139056317
0	7553	1890	86.95840397547
0	7573	1895	86.986984862015
0	7593	1900	87.053003180772
0	7613	1905	87.215552284149
0	7633	1910	87.378935130779
0	7653	1915	87.877529523219
0	7673	1920	88.255422754912
0	7693	1925	88.511903348844
0	7713	1930	88.619509533863
0	7733	1935	89.040764602949
0	7753	1940	89.313462070771
0	7773	1945	89.752226484707
0	7793	1950	89.975786468014
0	7813	1955	90.35105267074
0	7833	1960	90.579192908481
0	7853	1965	90.612624620087
0	7873	1970	90.789031311753
0	7893	1975	91.151861796854
0	7913	1980	91.464006441762
0	7933	1985	91.562763799098
0	7953	1990	91.802474878612
0	7973	1995	91.941559201689
0	7993	2000	92.318060460151
0	8013	2005	92.392482753377
0	8033	2010	92.483934358461
0	8053	2015	92.881754537928
0	8073	2020	92.883873852203
0	8093	2025	93.349741304177
0	8113	2030	93.446755900048
0	8133	2035	93.560842405539
0	8153	2040	93.611830928014
0	8173	2045	94.046597039211
0	8193	2050	94.19450455578
0	8213	2055	94.217182817985
0	8233	2060	94.550973702106
0	8253	2065	94.916164058144
0	8273	2070	95.363837442244
0	8293	2075	95.721608929802
0	8313	2080	95.880853102775
0	8333	2085	96.178862916189
0	8353	2090	96.491253765766
0	8373	2095	96.733262134483
0	8393	2100	96.793927829014
0	8413	2105	96.895371673629
0	8433	2110	97.28217708203
0	8453	2115	97.388843904133
0	8473	2120	97.630453837221
0	8493	2125	98.090969859273
0	8513	2130	98.385538379895
0	8533	2135	98.476880311966
0	8553	2140	98.763085512095
0	8573	2145	98.843018585816
0	8593	2150	98.951855517691
0	8613	2155	99.310907629202
0	8633	2160	99.560129121761
0	8653	2165	99.915022171917
0	8673	2170	100.06608950696
0	8693	2175	100.30379820603
0	8713	2180	100.7010695365
0	8733	2185	101.06997537229
0	8753	2190	101.08716990321
0	8773	2195	101.31585317722
0	8793	2200	101.7069334751
0	8813	2205	101.73577292031
0	8833	2210	101.73913311027
0	8853	2215	102.10101524298
0	8873	2220	102.24186529196
0	8893	2225	102.43594617408
0	8913	2230	102.71150259522
0	8933	2235	103.17972412903
0	8953	2240	103.18037056422
0	8973	2245	103.28923105204
0	8993	2250	103.4451456347
0	9013	2255	103.66073977959
0	9033	2260	103.8049231465
0	9053	2265	103.81350782258
0	9073	2270	104.00865990866
0	9093	2275	104.04544994968
0	9113	2280	104.06391562941
0	9133	2285	104.41039743682
0	9153	2290	104.75906561199
0	9173	2295	104.97488997877
0	9193	2300	105.37590905372
0	9213	2305	105.51268349739
0	9233	2310	105.78150844108
0	9253	2315	106.02679870138
0	9273	2320	106.15132303408
0	9293	2325	106.6044749351
0	9313	2330	106.87838138524
0	9333	2335	106.91643017286
0	9353	2340	107.36962770077
0	9373	2345	107.56148378912
0	9393	2350	107.95648302208
0	9413	2355	107.99721103976
0	9433	2360	108.46359755902
0	9453	2365	108.80666779249
0	9473	2370	109.12693286291
0	9493	2375	109.17102852277
0	9513	2380	109.34339926788
0	9533	2385	109.39298105869
0	9553	2390	109.84529306088
0	9573	2395	110.29906991136
0	9593	2400	110.56138779945
0	9613	2405	110.77041880658
0	9633	2410	111.08452404418
0	9653	2415	111.5272968699
0	9673	2420	111.84863529715
0	9693	2425	111.88785148738
0	9713	2430	112.25777513825
0	9733	2435	112.45597902045
0	9753	2440	112.50181073474
0	9773	2445	112.64279472164
0	9793	2450	112.66147381114
0	9813	2455	112.70819996239
0	9833	2460	113.13020870544
0	9853	2465	112.73231211281
0	9873	2470	113.01095758879
0	9893	2475	113.17714006337
0	9913	2480	113.66655127576
0	9933	2485	113.92796187394
0	9953	2490	114.06917991303
0	9973	2495	114.22250170889
0	9993	2500	114.34517535975
0	10013	2505	114.69309826999
0	10033	2510	114.82997166668
0	10053	2515	115.00324590411
0	10073	2520	115.23822058516
0	10093	2525	115.45823186787
0	10113	2530	115.68619992223
0	10133	2535	115.90263722115
0	10153	2540	116.05006497481
0	10173	2545	116.13334024674
0	10193	2550	116.16025624925
0	10213	2555	116.17064612824
0	10233	2560	116.36052509188
0	10253	2565	116.83914510731
0	10273	2570	117.01245387399
0	10293	2575	117.0610973055
0	10313	2580	117.52552195499
0	10333	2585	117.80660809739
0	10353	2590	117.83716109337
0	10373	2595	117.84179603308
0	10393	2600	118.18228171358
0	10413	2605	118.37944267259
0	10433	2610	118.53566931258
0	10453	2615	118.69742549316
0	10473	2620	118.81669468293
0	10493	2625	118.88005944237
0	10513	2630	119.12984433968
0	10533	2635	119.33406320296
0	10553	2640	119.48252431082
0	10573	2645	119.91164223931
0	10593	2650	119.99306378991
0	10613	2655	120.21574201505
0	10633	2660	120.48996494326
0	10653	2665	120.7355062468
0	10673	2670	121.10126176989
0	10693	2675	121.17582476791
0	10713	2680	121.65251156152
0	10733	2685	122.06853788567
0	10753	2690	122.32358432002
0	10773	2695	122.75654497638
0	10793	2700	122.97167661856
0	10813	2705	123.45771673229
0	10833	2710	123.50925926643
0	10853	2715	123.61008868215
0	10873	2720	124.04608780274
0	10893	2725	124.52309689752
0	10913	2730	124.62654244574
0	10933	2735	124.92759797955
0	10953	2740	125.13867568655
0	10973	2745	125.4811081168
0	10993	2750	125.66748098726
0	11013	2755	125.85592744604
0	11033	2760	126.11873909261
0	11053	2765	126.39656526549
0	11073	2770	126.41996094026
0	11093	2775	126.75537004729
0	11113	2780	126.78377271385
0	11133	2785	126.82684376929
0	11153	2790	127.20844073931
0	11173	2795	127.57187267824
0	11193	2800	127.62370386347
0	11213	2805	127.84232990607
0	11233	2810	128.18903114088
0	11253	2815	128.42867423396
0	11273	2820	128.91267983674
0	11293	2825	129.31212396396
0	11313	2830	129.33342843538
0	11333	2835	129.65438334341
0	11353	2840	129.88456741441
0	11373	2845	130.26334898523
0	11393	2850	130.44973249862
0	11413	2855	130.4780261229
0	11433	2860	130.5003948732
0	11453	2865	130.62214806513
0	11473	2870	130.91528004978
0	11493	2875	131.23477479664
0	11513	2880	131.7336309579
0	11533	2885	132.17417203111
0	11553	2890	132.46237533086
0	11573	2895	132.6024426088
0	11593	2900	132.76211403962
0	11613	2905	133.08234987687
0	11633	2910	133.23170543334
0	11653	2915	133.39019441383
0	11673	2920	133.49883507565
0	11693	2925	133.87282708625
0	11713	2930	134.09898220375
0	11733	2935	134.46578120289
0	11753	2940	134.61068786099
0	11773	2945	134.69929024181
0	11793	2950	135.07368421648
0	11813	2955	135.49018199847
0	11833	2960	135.61040629086
0	11853	2965	135.90070418303
0	11873	2970	136.16894830344
0	11893	2975	136.24757158395
0	11913	2980	136.61486163503
0	11933	2985	136.63435050123
0	11953	2990	136.67920938332
0	11973	2995	136.80155415519
0	11993	3000	137.17294905358
1	0	0	0
1	14	5	0.33338335563894
1	34	10	0.82317672087811
1	54	15	1.2995512255002
1	74	20	1.348181188805
1	94	25	1.7450300400378
1	114	30	1.9843282032525
1	134	35	2.2777203759179
1	154	40	2.5809581070207
1	174	45	2.7845786908874
1	194	50	2.8737623676425
1	214	55	3.2187748777214
1	234	60	3.5589099556673
1	254	65	3.8175642122515
1	274	70	3.965685405652
1	294	75	4.2186185978353
1	314	80	4.6717045182595
1	334	85	4.9230649000965
1	354	90	5.2217163686873
1	374	95	5.2955591577338
1	394	100	5.3153843872715
1	414	105	5.5774763148511
1	434	110	5.6738353008404
1	454	115	5.8329520549159
1	474	120	5.9749951207777
1	494	125	6.0791217488004
1	514	130	6.5015485404292
1	534	135	6.9345212751068
1	554	140	7.2168545420282
1	574	145	7.3067521858029
1	594	150	7.621440539835
1	614	155	7.9980606000172
1	634	160	8.4538889783435
1	654	165	8.8844504825538
1	674	170	9.373527352931
1	694	175	9.7267326405272
1	714	180	10.125359604252
1	734	185	10.43893995916
1	754	190	10.92914485815
1	774	195	11.203568023862
1	794	200	11.525167411659
1	814	205	11.872211100534
1	834	210	11.879029973876
1	854	215	12.147615039023
1	874	220	12.533431103337
1	894	225	12.69416756893
1	914	230	13.092226124601
1	934	235	13.247691316763
1	954	240	13.430764721823
1	974	245	13.926090568886
1	994	250	14.129337305319
1	1014	255	14.212608341244
1	1034	260	14.488007984473
1	1054	265	14.68217456725
1	1074	270	15.02152188844
1	1094	275	15.160547006875
1	1114	280	15.293198426487
1	1134	285	15.397999793873
1	1154	290	15.803951291251
1	1174	295	16.028251620824
1	1194	300	16.452470877906
1	1214	305	16.659690313856
1	1234	310	16.707418624545
1	1254	315	16.764894698979
1	1274	320	16.875554258004
1	1294	325	17.329690804356
1	1314	330	17.818920627236
1	1334	335	18.134872698458
1	1354	340	18.461971984012
1	1374	345	18.623579583596
1	1394	350	18.661181273055
1	1414	355	18.783151681768
1	1434	360	19.151681903866
1	1454	365	19.222615535255
1	1474	370	19.277463110979
1	1494	375	19.323098472087
1	1514	380	19.573482301552
1	1534	385	20.051768078469
1	1554	390	20.249013781664
1	1574	395	20.62068389717
1	1594	400	20.765389129752
1	1614	405	21.057534880005
1	1634	410	21.424371874426
1	1654	415	21.719582609716
1	1674	420	21.774598109303
1	1694	425	21.911417263327
1	1714	430	21.968587762327
1	1734	435	22.051082230755
1	1754	440	22.17102824524
1	1774	445	22.652113631833
1	1794	450	22.807367528672
1	1814	455	23.232203944004
1	1834	460	23.280451538507
1	1854	465	23.355139635853
1	1874	470	23.380920626689
1	1894	475	23.419319358654
1	1914	480	23.589070692658
1	1934	485	23.684657575679
1	1954	490	24.107056692126
1	1974	495	24.237518697744
1	1994	500	24.316229424207
1	2014	505	24.767150006024
1	2034	510	24.903776156134
1	2054	515	25.056512645795
1	2074	520	25.285758227459
1	2094	525	25.376857047901
1	2114	530	25.791740069864
1	2134	535	25.893283655518
1	2154	540	26.086255052825
1	2174	545	26.248918278376
1	2194	550	26.591723039863
1	2214	555	26.851204951527
1	2234	560	27.312066861545
1	2254	565	27.356010801392
1	2274	570	27.463516642572
1	2294	575	27.761028953944
1	2314	580	28.256573566468
1	2334	585	28.343206042075
1	2354	590	28.660856949398
1	2374	595	28.86007280543
1	2394	600	29.010452257004
1	2414	605	29.226034822059
1	2434	610	29.626289023901
1	2454	615	30.119834792102
1	2474	620	30.288415372372
1	2494	625	30.620844108635
1	2514	630	30.749780568294
1	2534	635	30.909116745112
1	2554	640	31.071244373103
1	2574	645	31.177929881262
1	2594	650	31.420682925382
1	2614	655	31.72888427414
1	2634	660	32.062123430776
1	2654	665	32.387778152945
1	2674	670	32.783198774327
1	2694	675	33.109413204365
1	2714	680	33.441568986629
1	2734	685	33.671242965618
1	2754	690	33.800646543619
1	2774	695	33.978380807792
1	2794	700	34.270103353425
1	2814	705	34.475364851998
1	2834	710	33.917276195018
1	2854	715	33.993460795493
1	2874	720	34.464711088571
1	2894	725	34.838447876624
1	2914	730	35.157609115588
1	2934	735	35.591019556392
1	2954	740	35.896297825268
1	2974	745	36.363677781657
1	2994	750	36.41015816736
1	3014	755	36.675038398127
1	3034	760	37.038865801645
1	3054	765	37.249128879863
1	3074	770	37.519425461302
1	3094	775	37.787516170647
1	3114	780	38.118975007324
1	3134	785	38.529316685046
1	3154	790	38.92317418789
1	3174	795	39.244184446288
1	3194	800	39.392481734976
1	3214	805	39.622897200868
1	3234	810	39.978073073551
1	3254	815	40.135452697868
1	3274	820	40.306103720912
1	3294	825	40.607584563666
1	3314	830	40.7961731744
1	3334	835	41.114882690483
1	3354	840	41.605087880511
1	3374	845	41.90991448157
1	3394	850	42.022741074674
1	3414	855	42.409249419463
1	3434	860	42.779033838073
1	3454	865	43.12193305057
1	3474	870	43.576791318133
1	3494	875	43.601705091423
1	3514	880	43.776858407655
1	3534	885	44.073898376664
1	3554	890	42.936721409205
1	3574	895	43.174198731664
1	3594	900	43.271768491832
1	3614	905	43.536870202748
1	3634	910	43.573965454474
1	3654	915	43.867920403834
1	3674	920	43.90642091597
1	3694	925	44.047276496887
1	3714	930	44.425775595824
1	3734	935	44.771630937583
1	3754	940	45.234821797931
1	3774	945	45.386979751172
1	3794	950	45.777884695679
1	3814	955	46.169728194014
1	3834	960	46.64818120806
1	3854	965	47.017359697144
1	3874	970	47.278952995897
1	3894	975	47.56384986511
1	3914	980	47.584579095594
1	3934	985	47.640564785572
1	3954	990	47.874805983505
1	3974	995	48.277693791315
1	3994	1000	48.370344881667
1	4014	1005	48.741768573062
1	4034	1010	48.860009727534
1	4054	1015	49.135466042324
1	4074	1020	49.307976838551
1	4094	1025	49.483780661016
1	4114	1030	49.507242767373
1	4134	1035	49.60160256864
1	4154	1040	49.874986015609
1	4174	1045	50.143574981485
1	4194	1050	50.308737488231
1	4214	1055	50.570362635539
1	4234	1060	51.06807943387
1	4254	1065	51.175703768735
1	4274	1070	51.4532611256
1	4294	1075	51.728585069999
1	4314	1080	52.016437606653
1	4334	1085	52.381400706712
1	4354	1090	52.540556511958
1	4374	1095	52.647724860231
1	4394	1100	53.111049698549
1	4414	1105	53.571685798699
1	4434	1110	53.661709188251
1	4454	1115	53.734841726953
1	4474	1120	53.808640331728
1	4494	1125	54.093442387879
1	4514	1130	54.204508849885
1	4534	1135	54.314341105521
1	4554	1140	54.685972559149
1	4574	1145	55.175639755791
1	4594	1150	55.370935213403
1	4614	1155	55.380829929258
1	4634	1160	55.463676980231
1	4654	1165	55.876726529212
1	4674	1170	56.270521955681
1	4694	1175	56.328035997227
1	4714	1180	56.689558462356
1	4734	1185	56.763753230218
1	4754	1190	56.905566058587
1	4774	1195	57.293963243952
1	4794	1200	57.616319761844
1	4814	1205	57.814370520995
1	4834	1210	57.981590495794
1	4854	1215	58.401447738288
1	4874	1220	58.528532103403
1	4894	1225	58.554398892797
1	4914	1230	58.576938537415
1	4934	1235	59.066472535604
1	4954	1240	59.446951096063
1	4974	1245	59.649255969096
1	4994	1250	59.715436606784
1	5014	1255	60.000849506701
1	5034	1260	60.309928870411
1	5054	1265	60.668410068494
1	5074	1270	60.800795988063
1	5094	1275	61.007574432995
1	5114	1280	61.364948455361
1	5134	1285	61.640107471729
1	5154	1290	61.922262491309
1	5174	1295	62.366584241274
1	5194	1300	62.737158683361
1	5214	1305	62.824343637214
1	5234	1310	62.947771449341
1	5254	1315	63.191914130352
1	5274	1320	63.476867420948
1	5294	1325	63.491671175812
1	5314	1330	63.820903292391
1	5334	1335	64.05198429944
1	5354	1340	64.202028210391
1	5374	1345	64.662068484351
1	5394	1350	65.056455946411
1	5414	1355	65.262178967707
1	5434	1360	65.336742321262
1	5454	1365	65.346355449292
1	5474	1370	65.35350248043
1	5494	1375	65.438312932849
1	5514	1380	65.875414927141
1	5534	1385	65.9796787675
1	5554	1390	66.126132572768
1	5574	1395	66.179164380184
1	5594	1400	66.288921560626
1	5614	1405	66.731554913917
1	5634	1410	67.082445779
1	5654	1415	67.281755291508
1	5674	1420	67.525305661839
1	5694	1425	67.891534737893
1	5714	1430	68.258909112657
1	5734	1435	68.553604402463
1	5754	1440	68.560974913067
1	5774	1445	68.841813491075
1	5794	1450	69.063377772691
1	5814	1455	69.447554740473
1	5834	1460	69.466265076306
1	5854	1465	69.669385374524
1	5874	1470	69.801452830085
1	5894	1475	69.872897649533
1	5914	1480	70.171000877977
1	5934	1485	70.654263901873
1	5954	1490	70.942136803642
1	5974	1495	71.166162653593
1	5994	1500	71.38144574652
1	6014	1505	71.601734531345
1	6034	1510	71.751425825525
1	6054	1515	72.142341725645
1	6074	1520	72.599408914335
1	6094	1525	73.082317716442
1	6114	1530	73.29268268228
1	6134	1535	73.788204285549
1	6154	1540	74.160373577266
1	6174	1545	74.616745732841
1	6194	1550	74.745302103111
1	6214	1555	74.837289931718
1	6234	1560	74.947413710994
1	6254	1565	75.305814806605
1	6274	1570	75.538388951332
1	6294	1575	75.708424115437
1	6314	1580	76.202274316689
1	6334	1585	76.632794745732
1	6354	1590	76.962754012551
1	6374	1595	77.173711745068
1	6394	1600	77.566688463907
1	6414	1605	77.858007998555
1	6434	1610	78.10272996698
1	6454	1615	78.385203799116
1	6474	1620	78.812367851264
1	6494	1625	79.101104162866
1	6514	1630	79.354946517735
1	6534	1635	79.366815825924
1	6554	1640	79.400439750752
1	6574	1645	79.81544666877
1	6594	1650	80.025335871382
1	6614	1655	80.347673332319
1	6634	1660	80.355918092304
1	6654	1665	80.810304148938
1	6674	1670	81.055113612791
1	6694	1675	81.111191128381
1	6714	1680	81.46562740556
1	6734	1685	81.579523043125
1	6754	1690	81.947853593621
1	6774	1695	82.354066890781
1	6794	1700	82.537201110972
1	6814	1705	82.963927327655
1	6834	1710	83.051307286951
1	6854	1715	83.072820442729
1	6874	1720	83.411468227976
1	6894	1725	83.820327772642
1	6914	1730	84.16520775063
1	6934	1735	84.394493957167
1	6954	1740	84.476153607713
1	6974	1745	84.840338808484
1	6994	1750	85.241691270494
1	7014	1755	85.508851949358
1	7034	1760	85.596106623183
1	7054	1765	85.61172414734
1	7074	1770	85.879129304434
1	7094	1775	86.187961911783
1	7114	1780	86.192515797913
1	7134	1785	86.656416496844
1	7154	1790	86.670834598714
1	7174	1795	86.79690652166
1	7194	1800	86.895954981912
1	7214	1805	87.240761980414
1	7234	1810	87.300279463176
1	7254	1815	87.368139602127
1	7274	1820	87.45516562718
1	7294	1825	87.622732125106
1	7314	1830	87.68271312851
1	7334	1835	88.062006605207
1	7354	1840	88.135977960424
1	7374	1845	88.176629163558
1	7394	1850	88.36573117564
1	7414	1855	88.731796210981
1	7434	1860	88.911344208987
1	7454	1865	89.209691613447
1	7474	1870	89.390849807998
1	7494	1875	89.452758311178
1	7514	1880	89.845061902772
1	7534	1885	90.006473659305
1	7554	1890	90.44271329639
1	7574	1895	90.66091030254
1	7594	1900	90.977935486706
1	7614	1905	91.02538734104
1	7634	1910	91.479664461687
1	7654	1915	91.812862248044
1	7674	1920	92.002332827542
1	7694	1925	92.428515770007
1	7714	1930	92.842320929863
1	7734	1935	93.034673720365
1	7754	1940	93.426100291894
1	7774	1945	93.286880751606
1	7794	1950	93.575411250466
1	7814	1955	93.842409043922
1	7834	1960	94.121607877547
1	7854	1965	94.222909992794
1	7874	1970	94.277405713801
1	7894	1975	94.419016559725
1	7914	1980	94.750478340662
1	7934	1985	94.815687751048
1	7954	1990	94.894448980689
1	7974	1995	95.313341307105
1	7994	2000	95.363181821303
1	8014	2005	95.589138396666
1	8034	2010	95.986282704631
1	8054	2015	96.213914888212
1	8074	2020	96.70818737743
1	8094	2025	97.076355389669
1	8114	2030	97.407074446324
1	8134	2035	97.458747504395
1	8154	2040	97.91220202134
1	8174	2045	98.240127875819
1	8194	2050	98.255548519315
1	8214	2055	98.636368387379
1	8234	2060	98.756254359731
1	8254	2065	98.992339263787
1	8274	2070	99.081631328911
1	8294	2075	99.314177601831
1	8314	2080	99.675926518277
1	8334	2085	99.687587763183
1	8354	2090	99.958149014739
1	8374	2095	100.37631242257
1	8394	2100	100.53981537849
1	8414	2105	100.61208484124
1	8434	2110	100.57544615073
1	8454	2115	100.94116554502
1	8474	2120	101.29602337664
1	8494	2125	101.34453501541
1	8514	2130	101.64399771171
1	8534	2135	102.11224647623
1	8554	2140	102.43602430215
1	8574	2145	102.73510176351
1	8594	2150	102.74604891392
1	8614	2155	103.18384862295
1	8634	2160	103.46885833156
1	8654	2165	103.78089976031
1	8674	2170	104.2520874542
1	8694	2175	104.71952387504
1	8714	2180	104.80763715203
1	8734	2185	105.27947602351
1	8754	2190	105.53994527797
1	8774	2195	105.56916508905
1	8794	2200	105.97413344018
1	8814	2205	106.06106740702
1	8834	2210	106.27417294658